    #         X           Y           Z       CHARGE      MIN DIST   ATOMIC VOL
 --------------------------------------------------------------------------------
    1    3.766954    0.175082   -2.788755    7.045945     1.303698   188.874846
    2    4.758052   -4.301399   -3.231656    7.903537     1.853182   487.252290
    3    4.314404    4.740064   -3.116003    7.875338     1.874279   552.877402
    4    0.199376   -3.750107   -2.834753    7.001683     1.331765   499.061910
    5   -0.168780    3.740824   -2.744087    7.877074     1.833954   220.784546
    6   -4.292373   -4.748893   -3.127366    7.879545     1.853402   605.796628
    7   -4.737147    4.302269   -3.037111    7.899018     1.868198   640.830078
    8   -3.731729   -0.187376   -2.766037    7.794842     1.820807   223.367901
    9    5.372025   -1.859750   -3.130485    2.213752     0.090411   154.619038
   10    5.164143    2.368033   -3.064132    1.303269     0.033800    58.006853
   11    2.382995   -5.145387   -3.152001    1.314196     0.098310   227.440638
   12    1.869410    5.348560   -3.034288    1.346937     0.094187   135.639291
   13   -1.847587   -5.359006   -3.105772    2.214259     0.092026   104.283167
   14   -2.361240    5.145043   -3.004150    1.320919     0.084368   100.329053
   15   -5.137788   -2.374217   -3.027155    1.319884     0.074349   225.555844
   16   -5.348181    1.857050   -2.979078    1.408294     0.129117   151.258041
   17    7.957865   -0.944242   -3.431148    3.952014     1.051513   499.259616
   18    7.827052    1.720415   -3.380893    4.053755     1.001683   399.286433
   19    1.726915   -7.810262   -3.452606    4.087551     1.015794   537.034585
   20    0.956424    7.939792   -3.305992    3.963532     1.060486   435.690643
   21   -0.937906   -7.943821   -3.426300    3.928736     1.067067   361.867334
   22   -1.708921    7.809459   -3.290594    4.072517     1.019838   333.516337
   23   -7.943357    0.946574   -3.197975    3.945783     1.064737   446.459013
   24   -7.810953   -1.718817   -3.229145    4.042095     1.017316   439.829282
   25   10.002792    3.199784   -3.548584    3.954813     0.993178   563.527149
   26   10.268726   -2.193812   -3.656206    3.859938     0.986103   633.659951
   27    3.201779   -9.983635   -3.669343    4.083342     0.985386   593.117102
   28    2.208700   10.252112   -3.492994    3.865316     0.977919   793.841110
   29   -2.192167  -10.255433   -3.618002    3.889097     0.972961   596.768068
   30   -3.185606    9.987228   -3.464791    3.924652     0.975354   573.425614
   31  -10.259889    2.200737   -3.297366    3.867197     0.978608   326.267128
   32   -9.991535   -3.193497   -3.355985    3.972539     0.981621   626.674350
   33   12.320040    1.947323   -3.745254    4.105686     0.990325  1410.841061
   34   12.450809   -0.711644   -3.800175    4.054576     1.040197   835.557013
   35    1.945338  -12.302216   -3.834037    4.021036     0.979227   635.057072
   36    0.728550   12.435973   -3.642027    4.061220     1.054319  1037.757223
   37   -0.713338  -12.436165   -3.809872    4.060472     1.054332  1140.234678
   38   -1.930750   12.305814   -3.628504    4.088322     0.993827  1079.011813
   39  -12.446992    0.721823   -3.403732    4.066264     1.045964   999.112349
   40  -12.314662   -1.936831   -3.430497    4.088071     0.999034   952.796493
   41    2.554606    2.737307    2.468321    7.046049     1.397184   180.004450
   42    6.442941    0.289694    2.805298    8.048488     2.007988   421.666719
   43   -0.302760    6.326799    2.910312    7.914581     1.958402   332.593710
   44    2.842602   -2.567769    2.429552    7.719132     1.748281   202.042046
   45   -2.748899    2.433988    2.540367    6.434267     1.379963   623.708764
   46    0.408473   -6.461624    2.809686    7.933538     1.955642   428.770943
   47   -6.337771   -0.427573    2.931453    7.914333     1.937425   333.938109
   48   -2.458491   -2.876106    2.462039    7.057537     1.455085   179.319071
   49    5.130130    2.442334    2.765181    1.268531     0.183318    73.651964
   50    1.980049    5.268077    2.802880    2.140389     0.165464   145.946348
   51    5.379607   -1.992103    2.716694    1.331766     0.186174    61.697359
   52   -2.454293    5.013361    2.855696    1.944454     0.154906    94.186996
   53    2.556773   -5.147304    2.721661    1.429098     0.130113   127.111585
   54   -5.275415    1.856868    2.867959    2.074269     0.091548   293.144833
   55   -1.878414   -5.403411    2.769308    1.294532     0.072551    54.619495
   56   -5.034080   -2.580455    2.822395    2.030688     0.076672   126.755715
   57    6.300947    4.918379    3.119310    4.121355     1.025866   395.780452
   58    4.314705    6.699305    3.134804    4.040300     1.025416   433.041387
   59    6.818273   -4.327357    3.015157    4.030719     1.037208   411.280579
   60   -4.928039    6.177348    3.221018    3.992635     1.043490   413.323538
   61    5.040897   -6.316288    3.018194    4.024392     1.021786   475.679916
   62   -6.707047    4.189159    3.227656    4.001087     1.050797   409.461687
   63   -6.195970   -5.056531    3.170189    4.113760     1.085462   429.838554
   64   -4.207764   -6.836809    3.141206    3.988137     1.027090   395.609107
   65    4.791484    9.277733    3.410930    3.854672     1.013196   569.286975
   66    8.812326    5.671565    3.387581    3.955465     0.957574   680.700728
   67    9.402052   -4.801146    3.242278    3.974005     0.936086   519.702385
   68   -5.681010    8.688132    3.503797    3.986604     1.016621   476.826609
   69    5.804040   -8.829010    3.248881    3.997423     1.018224   495.687733
   70   -9.284182    4.664815    3.511831    4.118399     1.081796   465.649647
   71   -8.706144   -5.813420    3.459795    4.132696     1.103265   558.017750
   72   -4.682822   -9.416889    3.402149    4.014788     1.001164   482.111941
   73    7.310714   10.035435    3.655148    4.009116     1.072638  1004.582207
   74    9.292271    8.257694    3.646201    4.011344     1.071722  1013.399881
   75   10.169258   -7.320242    3.447576    4.004520     1.016911   622.311644
   76   -8.265791    9.166701    3.767476    4.038649     1.018844   595.568653
   77    8.395280   -9.305667    3.450688    4.009179     1.080600   625.158606
   78  -10.041769    7.183347    3.770083    3.888300     1.030620   741.976315
   79   -9.183177   -8.400467    3.689500    3.975482     1.035501   725.250412
   80   -7.199146  -10.176777    3.663246    4.015473     1.064074  1043.042556
   81    0.015441   -0.040710   -0.156487   26.499511     2.034062    97.033958
   82    9.882069    5.246121   -3.489031    1.035592     0.592419  2261.384166
   83   10.352377   -4.242789   -3.683859    1.014873     0.628285  2381.879200
   84    5.248827   -9.861055   -3.675972    0.886866     0.537976  2637.341327
   85    4.257887   10.336267   -3.486710    1.019259     0.635986  2326.547965
   86   -4.241011  -10.339626   -3.583979    1.009435     0.624404  2343.273867
   87   -5.232694    9.866653   -3.442617    1.029343     0.594170  2500.107210
   88  -10.341867    4.249522   -3.253557    1.017897     0.633158  2272.178897
   89   -9.869727   -5.240566   -3.357860    1.031263     0.592912  2335.906035
   90   14.057418    3.037270   -3.849671    0.889375     0.416388 23025.596733
   91   14.286538   -1.619529   -3.950670    0.967453     0.409242 19703.099710
   92    3.033941  -14.037918   -3.975319    0.966547     0.393955 23392.340808
   93    1.639570   14.272414   -3.764587    0.969229     0.402866 20149.044689
   94   -1.623399  -14.272414   -3.937938    0.953133     0.401491 19924.292848
   95   -3.019337   14.043558   -3.740042    0.883162     0.391604 23019.283331
   96  -14.286538    1.632400   -3.458318    0.963522     0.419330 19729.315486
   97  -14.054422   -3.025205   -3.500748    0.886248     0.404203 22649.837278
   98    3.251260   10.631869    3.406488    0.989386     0.545616  1968.305235
   99   10.326181    4.288145    3.371591    0.942393     0.456361  1730.649803
  100   10.753071   -3.258406    3.235348    0.944907     0.464280  2007.345521
  101   -4.297226   10.201671    3.493161    0.955890     0.513471  2043.407041
  102    4.423760  -10.346229    3.248051    0.955977     0.461705  2321.592142
  103  -10.638206    3.124668    3.503429    0.934523     0.462439  2065.470997
  104  -10.221424   -4.431315    3.478788    0.890096     0.424520  2490.353728
  105   -3.144085  -10.772068    3.374871    0.970771     0.417688  1714.648821
  106    7.757426   12.029702    3.855243    1.013142     0.502279 22229.620401
  107   11.227105    8.917176    3.843539    0.957326     0.407362 24243.397948
  108   12.167939   -7.762587    3.608770    0.946054     0.570392 22305.354865
  109   -8.925582   11.100428    3.972209    0.997211     0.507837 24566.739031
  110    9.062086  -11.240873    3.614655    0.971194     0.492534 24083.770365
  111  -12.036025    7.627814    3.975319    1.006221     0.506002 22124.836380
  112  -11.116236   -9.062520    3.890398    0.933101     0.423063 24188.303959
  113   -7.641294  -12.173317    3.849662    0.957863     0.481767 22573.417435
 --------------------------------------------------------------------------------
    VACUUM CHARGE:               0.0000
    VACUUM VOLUME:               0.0000
    NUMBER OF ELECTRONS:       396.9959
